 WATER0001
GAUSSIAN             10 MOL ORBITALS     92 PRIMITIVES        6 NUCLEI
  O    1    (CENTRE  1)  -0.23227548 -0.28903997  1.47938811  CHARGE =  8.0
  H    2    (CENTRE  2)   1.35414508 -0.69848156  0.67524262  CHARGE =  1.0
  H    3    (CENTRE  3)  -0.84241746  1.22107746  0.65580366  CHARGE =  1.0
  O    4    (CENTRE  4)   0.34922473  0.43186716  6.85842460  CHARGE =  8.0
  H    5    (CENTRE  5)  -0.69184509 -0.75237161  7.77121981  CHARGE =  1.0
  H    6    (CENTRE  6)   0.06317012  0.08694664  5.07448485  CHARGE =  1.0
CENTRE ASSIGNMENTS    1  1  1  1  1  1  1  1  1  1  1  1  1  1  1  1  1  1  1  1
CENTRE ASSIGNMENTS    1  1  1  1  1  1  1  1  1  1  1  1  2  2  2  2  2  2  2  3
CENTRE ASSIGNMENTS    3  3  3  3  3  3  4  4  4  4  4  4  4  4  4  4  4  4  4  4
CENTRE ASSIGNMENTS    4  4  4  4  4  4  4  4  4  4  4  4  4  4  4  4  4  4  5  5
CENTRE ASSIGNMENTS    5  5  5  5  5  6  6  6  6  6  6  6
TYPE ASSIGNMENTS      1  1  1  1  1  1  1  1  1  2  2  2  3  3  3  4  4  4  1  2
TYPE ASSIGNMENTS      3  4  1  2  3  4  5  6  7  8  9 10  1  1  1  1  2  3  4  1
TYPE ASSIGNMENTS      1  1  1  2  3  4  1  1  1  1  1  1  1  1  1  2  2  2  3  3
TYPE ASSIGNMENTS      3  4  4  4  1  2  3  4  1  2  3  4  5  6  7  8  9 10  1  1
TYPE ASSIGNMENTS      1  1  2  3  4  1  1  1  1  2  3  4
EXPONENTS  0.5484672D+04 0.8252349D+03 0.1880470D+03 0.5296450D+02 0.1689757D+02
EXPONENTS  0.5799635D+01 0.1553962D+02 0.3599934D+01 0.1013762D+01 0.1553962D+02
EXPONENTS  0.3599934D+01 0.1013762D+01 0.1553962D+02 0.3599934D+01 0.1013762D+01
EXPONENTS  0.1553962D+02 0.3599934D+01 0.1013762D+01 0.2700058D+00 0.2700058D+00
EXPONENTS  0.2700058D+00 0.2700058D+00 0.8450000D-01 0.8450000D-01 0.8450000D-01
EXPONENTS  0.8450000D-01 0.8000000D+00 0.8000000D+00 0.8000000D+00 0.8000000D+00
EXPONENTS  0.8000000D+00 0.8000000D+00 0.1873114D+02 0.2825394D+01 0.6401217D+00
EXPONENTS  0.1612778D+00 0.1100000D+01 0.1100000D+01 0.1100000D+01 0.1873114D+02
EXPONENTS  0.2825394D+01 0.6401217D+00 0.1612778D+00 0.1100000D+01 0.1100000D+01
EXPONENTS  0.1100000D+01 0.5484672D+04 0.8252349D+03 0.1880470D+03 0.5296450D+02
EXPONENTS  0.1689757D+02 0.5799635D+01 0.1553962D+02 0.3599934D+01 0.1013762D+01
EXPONENTS  0.1553962D+02 0.3599934D+01 0.1013762D+01 0.1553962D+02 0.3599934D+01
EXPONENTS  0.1013762D+01 0.1553962D+02 0.3599934D+01 0.1013762D+01 0.2700058D+00
EXPONENTS  0.2700058D+00 0.2700058D+00 0.2700058D+00 0.8450000D-01 0.8450000D-01
EXPONENTS  0.8450000D-01 0.8450000D-01 0.8000000D+00 0.8000000D+00 0.8000000D+00
EXPONENTS  0.8000000D+00 0.8000000D+00 0.8000000D+00 0.1873114D+02 0.2825394D+01
EXPONENTS  0.6401217D+00 0.1612778D+00 0.1100000D+01 0.1100000D+01 0.1100000D+01
EXPONENTS  0.1873114D+02 0.2825394D+01 0.6401217D+00 0.1612778D+00 0.1100000D+01
EXPONENTS  0.1100000D+01 0.1100000D+01
MO    1     MO 0.0        OCC NO =    2.0000000  ORB. ENERGY =  -19.198657
  0.82565488D+00  0.15196457D+01  0.24590737D+01  0.32325212D+01  0.27725146D+01
  0.94796983D+00 -0.15905906D-01 -0.70971842D-02  0.20958080D-01  0.16792196D-02
  0.12937482D-02  0.56802513D-03  0.18923864D-02  0.14579817D-02  0.64013250D-03
 -0.28804907D-02 -0.22192628D-02 -0.97437589D-03  0.33832080D-02 -0.58780153D-04
 -0.65170414D-04  0.19917237D-03 -0.12864842D-03  0.22911471D-04  0.25727262D-04
 -0.50320127D-04 -0.91813956D-02 -0.91839552D-02 -0.91229909D-02 -0.20875699D-04
  0.15955334D-04  0.19242370D-04  0.77318589D-04  0.13114696D-03  0.14930618D-03
 -0.20232511D-03  0.11412230D-03 -0.36379586D-04 -0.11964439D-03  0.77297502D-04
  0.13111119D-03  0.14926546D-03 -0.20239608D-03 -0.50134238D-04  0.10724240D-03
 -0.12117479D-03 -0.52230415D-04 -0.96131846D-04 -0.15555947D-03 -0.20448728D-03
 -0.17538755D-03 -0.59967983D-04  0.11500630D-03  0.51315585D-04 -0.15153561D-03
  0.54828317D-04  0.42242263D-04  0.18546629D-04  0.64645526D-04  0.49805893D-04
  0.21867470D-04  0.19518153D-03  0.15037685D-03  0.66023537D-04  0.23154065D-03
 -0.32314850D-04 -0.37960731D-04 -0.94623630D-04  0.14228243D-03 -0.16705263D-04
 -0.19432355D-04 -0.30485103D-04 -0.13164252D-03 -0.12267085D-03 -0.56455046D-04
  0.65442145D-04 -0.92272507D-06  0.10594369D-05 -0.62012653D-05 -0.10518520D-04
 -0.11974963D-04 -0.81977827D-04  0.40563548D-06  0.78757530D-06  0.35264883D-04
 -0.85451792D-05 -0.14494241D-04 -0.16501181D-04 -0.28106874D-03  0.68131599D-05
  0.10267627D-04  0.21326880D-03
MO    2     MO 0.0        OCC NO =    2.0000000  ORB. ENERGY =  -19.135834
  0.21966479D-04  0.40430048D-04  0.65423450D-04  0.86000956D-04  0.73762520D-04
  0.25220658D-04  0.28465320D-04  0.12701170D-04 -0.37506726D-04  0.88473424D-06
  0.68164004D-06  0.29927669D-06  0.11092164D-05  0.85459144D-06  0.37521167D-06
  0.13667889D-04  0.10530371D-04  0.46234002D-05  0.35850368D-04  0.14824621D-04
  0.17174034D-04  0.15027559D-04  0.12508630D-03  0.11670665D-04  0.13610103D-04
  0.21195740D-04 -0.14194080D-04 -0.19838172D-04  0.70982562D-04 -0.42665048D-04
  0.46760229D-05  0.67481070D-05 -0.23380264D-05 -0.39657353D-05 -0.45148495D-05
 -0.69880927D-04  0.13345869D-04 -0.23403118D-04 -0.38560447D-04 -0.23441448D-05
 -0.39761132D-05 -0.45266644D-05 -0.69985342D-04 -0.24570156D-04  0.97989139D-05
 -0.38920461D-04  0.82565203D+00  0.15196405D+01  0.24590652D+01  0.32325100D+01
  0.27725050D+01  0.94796656D+00 -0.15874594D-01 -0.70832130D-02  0.20916823D-01
 -0.22660238D-02 -0.17458492D-02 -0.76652182D-03 -0.26073469D-02 -0.20088202D-02
 -0.88198028D-03 -0.11233644D-02 -0.86549173D-03 -0.37999749D-03  0.34989611D-02
  0.65036930D-04  0.73626307D-04 -0.91092100D-04 -0.12927078D-03 -0.30376556D-04
 -0.34775029D-04  0.17448335D-05 -0.91873797D-02 -0.91781288D-02 -0.90408373D-02
  0.65666434D-04  0.26853195D-04  0.34119733D-04  0.65481067D-04  0.11106828D-03
  0.12644731D-03 -0.19588744D-03 -0.11534708D-03 -0.13093758D-03  0.13040800D-03
  0.58830425D-04  0.99787535D-04  0.11360458D-03 -0.38488900D-03 -0.65239632D-04
 -0.77656434D-04 -0.31021872D-03
MO    3     MO 0.0        OCC NO =    2.0000000  ORB. ENERGY =   -1.050915
 -0.17649477D+00 -0.32484460D+00 -0.52565988D+00 -0.69099462D+00 -0.59266207D+00
 -0.20264123D+00 -0.29088825D+00 -0.12979377D+00  0.38328274D+00  0.16017065D+00
  0.12340285D+00  0.54180500D-01  0.18075526D+00  0.13926218D+00  0.61143600D-01
 -0.25065299D+00 -0.19311462D+00 -0.84787719D-01  0.11711607D+00  0.53127874D-02
  0.60194998D-02 -0.60954775D-02  0.26165853D-02  0.41898253D-03  0.47124754D-03
 -0.83255827D-03 -0.30101737D-02 -0.36653472D-02 -0.20713886D-02 -0.43350882D-02
 -0.68707449D-02 -0.78788103D-02  0.32145828D-01  0.54525408D-01  0.62075250D-01
 -0.11203637D-02 -0.34047723D-01  0.12178219D-01  0.14001365D-01  0.32145967D-01
  0.54525644D-01  0.62075518D-01 -0.11212084D-02  0.16487716D-01 -0.31984049D-01
  0.14448394D-01 -0.11237629D-01 -0.20683237D-01 -0.33469381D-01 -0.43996438D-01
 -0.37735490D-01 -0.12902405D-01 -0.17267078D-01 -0.77045368D-02  0.22751600D-01
 -0.12730498D-01 -0.98081621D-02 -0.43063115D-02 -0.14752509D-01 -0.11366013D-01
 -0.49902918D-02 -0.16893927D-01 -0.13015860D-01 -0.57146635D-02  0.84703843D-02
 -0.61302906D-03 -0.71467457D-03 -0.12048645D-02  0.15979434D-02 -0.28764769D-03
 -0.33183564D-03 -0.24386367D-03 -0.13393915D-02 -0.11989325D-02  0.40212631D-05
  0.10080568D-02  0.23406425D-03  0.30379163D-03  0.18473109D-02  0.31333889D-02
  0.35672526D-02 -0.13312266D-02  0.11596884D-02  0.13177145D-02 -0.11712940D-02
  0.36542252D-02  0.61982575D-02  0.70564971D-02 -0.18479269D-02 -0.24608103D-04
 -0.10602372D-04  0.17527899D-02
MO    4     MO 0.0        OCC NO =    2.0000000  ORB. ENERGY =   -0.988476
  0.12394438D-01  0.22812382D-01  0.36914740D-01  0.48525459D-01  0.41620004D-01
  0.14230586D-01  0.22410925D-01  0.99997109D-02 -0.29529280D-01 -0.12772786D-01
 -0.98407432D-02 -0.43206163D-02 -0.14223450D-01 -0.10958402D-01 -0.48113286D-02
  0.38274125D-01  0.29488150D-01  0.12946886D-01 -0.68804511D-02 -0.98251187D-04
 -0.86649129D-04  0.24050890D-02  0.15807068D-02  0.15243175D-03  0.17839759D-03
  0.31535647D-03 -0.14759909D-02 -0.14464095D-02  0.87569550D-03  0.11165339D-03
  0.12920483D-02  0.15277062D-02 -0.26599748D-02 -0.45118208D-02 -0.51365485D-02
 -0.11564894D-02  0.24799277D-02 -0.11140122D-02 -0.14814637D-02 -0.26599667D-02
 -0.45118069D-02 -0.51365327D-02 -0.11585671D-02 -0.14210973D-02  0.22957310D-02
 -0.15165860D-02 -0.17633936D+00 -0.32455856D+00 -0.52519702D+00 -0.69038618D+00
 -0.59214022D+00 -0.20246280D+00 -0.28963631D+00 -0.12923516D+00  0.38163315D+00
 -0.21723865D+00 -0.16737067D+00 -0.73484738D-01 -0.25012797D+00 -0.19271012D+00
 -0.84610121D-01 -0.12404944D+00 -0.95573406D-01 -0.41961873D-01  0.11893418D+00
 -0.72152724D-02 -0.83268570D-02 -0.61175080D-02  0.27720757D-02 -0.51212944D-03
 -0.58763782D-03 -0.10262986D-03 -0.56630700D-02 -0.41103160D-02 -0.39530558D-04
  0.11294050D-01  0.89853822D-03  0.12309722D-02  0.32982364D-01  0.55944333D-01
  0.63690645D-01 -0.25881930D-03  0.20732117D-01  0.23538252D-01 -0.22853737D-01
  0.31001069D-01  0.52583680D-01  0.59864661D-01 -0.40608207D-02  0.28106106D-02
  0.35707717D-02  0.36271244D-01
MO    5     MO 0.0        OCC NO =    2.0000000  ORB. ENERGY =   -0.569588
 -0.30066144D-06 -0.55337754D-06 -0.89546932D-06 -0.11771195D-05 -0.10096085D-05
 -0.34520231D-06 -0.13913521D-05 -0.62081860D-06  0.18332857D-05  0.12279378D+01
  0.94605985D+00  0.41537123D+00 -0.10730758D+01 -0.82674705D+00 -0.36298649D+00
  0.10820066D-01  0.83362773D-02  0.36600747D-02 -0.31613347D-06  0.52872048D-01
 -0.46204321D-01  0.46489823D-03 -0.15733968D-06  0.92399892D-03 -0.80745617D-03
  0.79869228D-05  0.18553620D-01 -0.18308575D-01 -0.24436086D-03  0.47384107D-02
 -0.27493318D-01  0.24353066D-01  0.52437188D-01  0.88943396D-01  0.10125891D+00
  0.21691408D-01 -0.20245983D-01 -0.51748278D-02  0.18812880D-01 -0.52435421D-01
 -0.88940399D-01 -0.10125550D+00 -0.21691395D-01  0.26059209D-02  0.20589421D-01
 -0.18969914D-01 -0.20283300D-05 -0.37332099D-05 -0.60410384D-05 -0.79411140D-05
 -0.68110474D-05 -0.23288128D-05 -0.32406220D-05 -0.14459592D-05  0.42699369D-05
  0.82909959D-02  0.63877654D-02  0.28045731D-02 -0.73012926D-02 -0.56252523D-02
 -0.24697888D-02  0.19663499D-03  0.15149666D-03  0.66515193D-04  0.25966312D-05
  0.56595361D-03 -0.49700414D-03  0.97623761D-05  0.37655706D-06  0.63688397D-04
 -0.55790376D-04  0.64855252D-06 -0.20776393D-03  0.21542005D-03 -0.80470700D-05
 -0.62435263D-04 -0.72701035D-03  0.62725147D-03  0.45664103D-05  0.77454962D-05
  0.88179737D-05  0.13958334D-05  0.75428814D-04 -0.62357286D-04  0.48163785D-06
 -0.58216235D-05 -0.98745752D-05 -0.11241855D-04 -0.28428492D-05  0.11253823D-02
 -0.98540923D-03  0.84275653D-05
MO    6     MO 0.0        OCC NO =    2.0000000  ORB. ENERGY =   -0.514663
  0.61916037D-02  0.11395856D-01  0.18440646D-01  0.24240746D-01  0.20791147D-01
  0.71088461D-02  0.80160491D-02  0.35767455D-02 -0.10562177D-01  0.56543194D-01
  0.43563483D-01  0.19126715D-01  0.60954015D-01  0.46961783D-01  0.20618752D-01
 -0.39668324D+00 -0.30562305D+00 -0.13418498D+00 -0.92763848D-02  0.19185098D-02
  0.19859556D-02 -0.21652194D-01 -0.22222662D-02 -0.51669985D-04 -0.69404606D-04
 -0.97393312D-03  0.93492938D-03  0.98323984D-03  0.32801222D-03  0.88695162D-03
 -0.72730329D-02 -0.83389447D-02  0.69056387D-02  0.11713270D-01  0.13335144D-01
  0.35494865D-02 -0.46209459D-02  0.26881339D-02 -0.31757761D-02  0.69178805D-02
  0.11734035D-01  0.13358784D-01  0.35569683D-02  0.33137915D-02 -0.42512623D-02
 -0.31009105D-02  0.10270988D-03  0.18904100D-03  0.30590402D-03  0.40211940D-03
  0.34489547D-03  0.11792562D-03 -0.17164555D-02 -0.76587911D-03  0.22616513D-02
 -0.40060483D+00 -0.30864442D+00 -0.13551153D+00 -0.44530050D+00 -0.34308003D+00
 -0.15063061D+00  0.14336654D+01  0.11045619D+01  0.48496218D+00 -0.33215577D-02
 -0.16518907D-01 -0.18331012D-01  0.62324470D-01  0.55460748D-04 -0.36327874D-03
 -0.40586967D-03  0.11069284D-02  0.91625114D-02  0.11381943D-01 -0.17537357D-01
  0.17968542D-01 -0.24121782D-01 -0.28002018D-01  0.50957359D-01  0.86433326D-01
  0.98401287D-01  0.22783799D-01  0.17403769D-01  0.19943872D-01  0.17573657D-04
 -0.51099146D-01 -0.86673822D-01 -0.98675083D-01 -0.19715974D-01 -0.11553821D-01
 -0.13420864D-01 -0.18693205D-01
MO    7     MO 0.0        OCC NO =    2.0000000  ORB. ENERGY =   -0.428451
 -0.60785740D-01 -0.11187821D+00 -0.18104006D+00 -0.23798223D+00 -0.20411598D+00
 -0.69790719D-01 -0.10203689D+00 -0.45528663D-01  0.13444675D+00 -0.70862638D+00
 -0.54595842D+00 -0.23970515D+00 -0.79784741D+00 -0.61469842D+00 -0.26988571D+00
  0.12880858D+01  0.99240063D+00  0.43571733D+00  0.77833277D-01 -0.36790699D-01
 -0.41392917D-01  0.69656381D-01  0.38963867D-02 -0.22313040D-02 -0.25166505D-02
  0.36474584D-02 -0.14630408D-02 -0.35798113D-02 -0.11493727D-01 -0.17688976D-01
  0.27138444D-01  0.30696518D-01 -0.29314316D-01 -0.49722629D-01 -0.56607455D-01
 -0.14399753D-01  0.93314944D-02 -0.19495945D-01  0.10954321D-01 -0.29315228D-01
 -0.49724175D-01 -0.56609216D-01 -0.14400522D-01 -0.20678818D-01  0.67296652D-02
  0.10687830D-01  0.21514449D-01  0.39598071D-01  0.64077153D-01  0.84231212D-01
  0.72244621D-01  0.24701663D-01  0.36070129D-01  0.16094421D-01 -0.47527041D-01
 -0.28655140D+00 -0.22077241D+00 -0.96930978D-01 -0.32585234D+00 -0.25105166D+00
 -0.11022520D+00  0.26940135D+00  0.20755922D+00  0.91129677D-01 -0.28635139D-01
 -0.13785190D-01 -0.15679935D-01  0.12595288D-01 -0.28888343D-02 -0.22947272D-03
 -0.26143685D-03  0.21405534D-03  0.37059699D-02  0.52291302D-02 -0.25793020D-02
  0.11234653D-01 -0.13928134D-02 -0.16189570D-02  0.17559265D-01  0.29783837D-01
  0.33907845D-01  0.11662705D-01  0.31197468D-02  0.35423080D-02 -0.32957959D-02
 -0.22090843D-02 -0.37470252D-02 -0.42658557D-02  0.31606355D-02 -0.73696878D-02
 -0.85412887D-02 -0.95226489D-02
MO    8     MO 0.0        OCC NO =    2.0000000  ORB. ENERGY =   -0.366010
 -0.18210681D-01 -0.33517374D-01 -0.54237438D-01 -0.71296631D-01 -0.61150706D-01
 -0.20908465D-01 -0.32545694D-01 -0.14521825D-01  0.42883144D-01 -0.65267901D+00
 -0.50285399D+00 -0.22077999D+00 -0.75051326D+00 -0.57823001D+00 -0.25387412D+00
 -0.36224906D+00 -0.27909337D+00 -0.12253702D+00  0.23767330D-01 -0.37343991D-01
 -0.42971203D-01 -0.23510447D-01  0.72284897D-03 -0.20616177D-02 -0.23781266D-02
 -0.19057432D-02 -0.36918570D-02 -0.59656302D-02  0.55807411D-02 -0.17307596D-01
  0.65611272D-02  0.75392809D-02 -0.66541057D-02 -0.11286623D-01 -0.12849421D-01
 -0.46937743D-02 -0.63931507D-02 -0.14636136D-01 -0.83277322D-02 -0.66527787D-02
 -0.11284372D-01 -0.12846858D-01 -0.46936310D-02 -0.13563776D-01 -0.83704145D-02
 -0.83906934D-02 -0.56328268D-01 -0.10367408D+00 -0.16776424D+00 -0.22053078D+00
 -0.18914797D+00 -0.64672904D-01 -0.97329889D-01 -0.43428407D-01  0.12824467D+00
  0.89582099D+00  0.69018178D+00  0.30302698D+00  0.10316230D+01  0.79480991D+00
  0.34896436D+00  0.51680591D+00  0.39817109D+00  0.17481856D+00  0.69224327D-01
  0.46330577D-01  0.53381586D-01  0.29478842D-01  0.53086380D-02  0.26275269D-02
  0.30273232D-02  0.17057569D-02 -0.45329883D-02 -0.90570648D-02  0.24975979D-02
 -0.31933663D-01 -0.16379737D-01 -0.18904632D-01 -0.27987815D-01 -0.47472631D-01
 -0.54045912D-01 -0.17634010D-01  0.22877301D-02  0.28272055D-02  0.21219938D-01
 -0.25054269D-01 -0.42496783D-01 -0.48381085D-01 -0.94539644D-02  0.11270544D-01
  0.12830281D-01 -0.91252461D-02
MO    9     MO 0.0        OCC NO =    2.0000000  ORB. ENERGY =   -0.346464
 -0.52926222D-02 -0.97412502D-02 -0.15763182D-01 -0.20721143D-01 -0.17772404D-01
 -0.60766869D-02 -0.67595885D-02 -0.30161152D-02  0.89066286D-02  0.79411848D+00
  0.61182548D+00  0.26862434D+00  0.92118953D+00  0.70972687D+00  0.31160832D+00
  0.12317494D+01  0.94899649D+00  0.41666058D+00  0.94776862D-02  0.47407922D-01
  0.54979945D-01  0.71893207D-01  0.81308484D-02  0.39131670D-02  0.45403324D-02
  0.60375632D-02  0.67608880D-02  0.96036854D-02 -0.23216856D-01  0.20907411D-01
  0.15053335D-02  0.13010078D-02 -0.16710048D-02 -0.28343405D-02 -0.32267965D-02
 -0.64530580D-02  0.15051664D-01  0.15773425D-01  0.20678227D-01 -0.16712080D-02
 -0.28346851D-02 -0.32271888D-02 -0.64566663D-02  0.13406898D-01  0.17211927D-01
  0.20662173D-01 -0.25256530D-01 -0.46485498D-01 -0.75222311D-01 -0.98881833D-01
 -0.84810374D-01 -0.28998107D-01 -0.37561681D-01 -0.16759949D-01  0.49492353D-01
  0.49252685D+00  0.37946539D+00  0.16660574D+00  0.57005892D+00  0.43919967D+00
  0.19283231D+00  0.62866046D+00  0.48434899D+00  0.21265530D+00  0.38383352D-01
  0.26250688D-01  0.30336652D-01  0.29019743D-01  0.11548932D-03  0.17887758D-02
  0.20756556D-02  0.27310506D-02 -0.57877537D-02 -0.82843215D-02 -0.17452919D-03
 -0.17340037D-01 -0.13796986D-01 -0.15837646D-01 -0.86580735D-02 -0.14685731D-01
 -0.16719186D-01 -0.36948799D-02  0.46151163D-02  0.54284002D-02  0.15235758D-01
 -0.18704784D-01 -0.31726854D-01 -0.36119902D-01 -0.14659939D-01  0.53040098D-02
  0.58724791D-02 -0.20072887D-01
MO   10     MO 0.0        OCC NO =    2.0000000  ORB. ENERGY =   -0.291849
  0.36070140D-05  0.66388312D-05  0.10742882D-04  0.14121819D-04  0.12112202D-04
  0.41413677D-05  0.84936807D-05  0.37898638D-05 -0.11191518D-04 -0.25191525D-01
 -0.19408712D-01 -0.85214699D-02  0.21734215D-01  0.16745041D-01  0.73519749D-02
 -0.47322656D-03 -0.36459556D-03 -0.16007709D-03 -0.32246956D-05 -0.11303468D-03
  0.83334730D-04 -0.15071779D-04  0.25859470D-05  0.10073007D-02 -0.88061170D-03
  0.77075870D-05  0.32684467D-03 -0.35236954D-03  0.23441626D-04  0.10747041D-03
  0.20738604D-02 -0.18037111D-02 -0.13016429D-02 -0.22078326D-02 -0.25135394D-02
 -0.36385764D-02  0.11330918D-02  0.67105457D-04 -0.68666113D-03  0.13028416D-02
  0.22098659D-02  0.25158542D-02  0.36350783D-02  0.73089050D-04 -0.11320874D-02
  0.68760181D-03 -0.60648250D-06 -0.11162516D-05 -0.18063057D-05 -0.23744394D-05
 -0.20365429D-05 -0.69632861D-06  0.63068078D-08  0.28140853D-08 -0.83100317D-08
  0.15001345D+01  0.11557728D+01  0.50744651D+00 -0.13091471D+01 -0.10086273D+01
 -0.44284170D+00  0.12481717D-01  0.96164901D-02  0.42221571D-02  0.31545907D-05
  0.87723669D-01 -0.76555448D-01  0.72915223D-03 -0.82365575D-06  0.65450575D-02
 -0.57115436D-02  0.54821860D-04 -0.23177584D-01  0.23293218D-01 -0.11809795D-03
 -0.64671038D-02 -0.14227914D-01  0.12026670D-01 -0.41205241D-06 -0.69891887D-06
 -0.79569443D-06  0.44460360D-06  0.27419546D-01 -0.23928272D-01  0.22808803D-03
  0.13456638D-05  0.22825005D-05  0.25985461D-05 -0.20587790D-05  0.25947566D-01
 -0.22643744D-01  0.21947893D-03
END DATA
 TOTAL ENERGY =     -152.877720057008 THE VIRIAL(-V/T)=   2.00928217
